ROOT
HETATM    1 S1   LIG     1       7.657  -1.234   0.000  1.00  0.00     0.000 S
HETATM    2 O2   LIG     1       3.404  -2.447   0.000  1.00  0.00     0.000 O
HETATM    3 O3   LIG     1       2.438  -0.278   0.000  1.00  0.00     0.000 O
HETATM    4 O4   LIG     1       7.356  -3.202   0.000  1.00  0.00     0.000 O
HETATM    5 O5   LIG     1       5.709  -3.737   0.000  1.00  0.00     0.000 O
HETATM    6 O6   LIG     1       7.475   2.616   0.000  1.00  0.00     0.000 O
HETATM    7 N7   LIG     1       5.118  -1.734   0.000  1.00  0.00     0.000 N
HETATM    8 N8   LIG     1       9.359   0.715   0.000  1.00  0.00     0.000 N
HETATM    9 N9   LIG     1       9.198   2.797   0.000  1.00  0.00     0.000 N
HETATM   10 C10  LIG     1       5.118  -0.734   0.000  1.00  0.00     0.000 C
HETATM   11 C11  LIG     1       4.110  -0.730   0.000  1.00  0.00     0.000 C
HETATM   12 C12  LIG     1       6.069  -0.425   0.000  1.00  0.00     0.000 C
HETATM   13 C13  LIG     1       4.110  -1.738   0.000  1.00  0.00     0.000 C
HETATM   14 C14  LIG     1       6.657  -1.234   0.000  1.00  0.00     0.000 C
HETATM   15 C15  LIG     1       6.069  -2.043   0.000  1.00  0.00     0.000 C
HETATM   16 C16  LIG     1       3.404  -0.021   0.000  1.00  0.00     0.000 C
HETATM   17 C17  LIG     1       6.378   0.526   0.000  1.00  0.00     0.000 C
HETATM   18 C18  LIG     1       8.157  -0.368   0.000  1.00  0.00     0.000 C
HETATM   19 C19  LIG     1       7.750   0.546   0.000  1.00  0.00     0.000 C
HETATM   20 C20  LIG     1       3.665   0.944   0.000  1.00  0.00     0.000 C
HETATM   21 C21  LIG     1       9.151  -0.263   0.000  1.00  0.00     0.000 C
HETATM   22 C22  LIG     1       8.493   1.215   0.000  1.00  0.00     0.000 C
HETATM   23 C23  LIG     1       6.378  -2.994   0.000  1.00  0.00     0.000 C
HETATM   24 C24  LIG     1       8.389   2.209   0.000  1.00  0.00     0.000 C
HETATM   25 C25  LIG     1       9.093   3.792   0.000  1.00  0.00     0.000 C
HETATM   26 C26  LIG     1      10.111   2.390   0.000  1.00  0.00     0.000 C
HETATM   27 H27  LIG     1       4.987   0.106   0.000  1.00  0.00     0.000 H
HETATM   28 H28  LIG     1       3.324  -1.054   0.000  1.00  0.00     0.000 H
HETATM   29 H29  LIG     1       5.630   0.013   0.000  1.00  0.00     0.000 H
HETATM   30 H30  LIG     1       2.966   0.418   0.000  1.00  0.00     0.000 H
HETATM   31 H31  LIG     1       6.968   0.335   0.000  1.00  0.00     0.000 H
HETATM   32 H32  LIG     1       6.570   1.116   0.000  1.00  0.00     0.000 H
HETATM   33 H33  LIG     1       5.788   0.718   0.000  1.00  0.00     0.000 H
HETATM   34 H34  LIG     1       7.538  -0.336   0.000  1.00  0.00     0.000 H
HETATM   35 H35  LIG     1       7.386   1.047   0.000  1.00  0.00     0.000 H
HETATM   36 H36  LIG     1       7.213   0.236   0.000  1.00  0.00     0.000 H
HETATM   37 H37  LIG     1       9.151  -0.883   0.000  1.00  0.00     0.000 H
HETATM   38 H38  LIG     1       9.768  -0.328   0.000  1.00  0.00     0.000 H
HETATM   39 H39  LIG     1       4.263   0.782   0.000  1.00  0.00     0.000 H
HETATM   40 H40  LIG     1       3.826   1.543   0.000  1.00  0.00     0.000 H
HETATM   41 H41  LIG     1       3.066   1.106   0.000  1.00  0.00     0.000 H
HETATM   42 H42  LIG     1       9.013   1.552   0.000  1.00  0.00     0.000 H
HETATM   43 H43  LIG     1       9.926   0.967   0.000  1.00  0.00     0.000 H
HETATM   44 H44  LIG     1       2.000   0.161   0.000  1.00  0.00     0.000 H
HETATM   45 H45  LIG     1       7.548  -3.792   0.000  1.00  0.00     0.000 H
HETATM   46 H46  LIG     1       9.710   3.856   0.000  1.00  0.00     0.000 H
HETATM   47 H47  LIG     1       9.028   4.408   0.000  1.00  0.00     0.000 H
HETATM   48 H48  LIG     1       8.476   3.727   0.000  1.00  0.00     0.000 H
HETATM   49 H49  LIG     1       9.859   1.824   0.000  1.00  0.00     0.000 H
HETATM   50 H50  LIG     1      10.678   2.138   0.000  1.00  0.00     0.000 H
HETATM   51 H51  LIG     1      10.363   2.957   0.000  1.00  0.00     0.000 H
ENDROOT
TORSDOF 0
